<?xml version="1.0" encoding="UTF-8"?>

<!-- generated on Fri Dec 14 12:26:43 2018 by SUMO Version git
<?xml version="1.0" encoding="UTF-8"?>

<configuration xmlns:xsi="http://www.w3.org/2001/XMLSchema-instance" xsi:noNamespaceSchemaLocation="http://sumo.dlr.de/xsd/sumoConfiguration.xsd">

    <input>
        <net-file value="sioux.net.xml"/>
        <route-files value="sioux_dua.rou.xml"/>
        <additional-files value="additionalFile.xml"/>
    </input>

    <output>
        <queue-output value="queue.xml"/>
        <summary-output value="summary.xml"/>
        <tripinfo-output value="tripinfo.xml"/>
    </output>

    <processing>
        <time-to-teleport value="300"/>
    </processing>

    <report>
        <verbose value="true"/>
        <xml-validation value="never"/>
        <duration-log.statistics value="true"/>
    </report>

</configuration>
-->

<detector xmlns:xsi="http://www.w3.org/2001/XMLSchema-instance" xsi:noNamespaceSchemaLocation="http://sumo.dlr.de/xsd/det_e1_file.xsd">
    <interval begin="0.00" end="300.00" id="TLS1_0_InductLoopOn_3_0" nVehContrib="4" flow="48.00" occupancy="0.25" speed="26.87" length="5.00" nVehEntered="4"/>
    <interval begin="0.00" end="300.00" id="TLS1_0_InductLoopOn_3_1" nVehContrib="3" flow="36.00" occupancy="0.19" speed="26.63" length="5.00" nVehEntered="3"/>
    <interval begin="0.00" end="300.00" id="TLS1_0_InductLoopOn_5_0" nVehContrib="2" flow="24.00" occupancy="0.13" speed="26.80" length="5.00" nVehEntered="3"/>
    <interval begin="0.00" end="300.00" id="TLS1_0_InductLoopOn_5_1" nVehContrib="13" flow="156.00" occupancy="1.31" speed="21.45" length="5.00" nVehEntered="13"/>
    <interval begin="0.00" end="300.00" id="TLS1_0_InductLoopOn_ef1_0" nVehContrib="71" flow="852.00" occupancy="7.65" speed="18.60" length="5.00" nVehEntered="72"/>
    <interval begin="0.00" end="300.00" id="TLS1_0_InductLoopOn_ef1_1" nVehContrib="25" flow="300.00" occupancy="2.26" speed="20.39" length="5.00" nVehEntered="25"/>
    <interval begin="0.00" end="300.00" id="TLS12_0_InductLoopOn_7_0" nVehContrib="11" flow="132.00" occupancy="0.85" speed="22.54" length="5.00" nVehEntered="11"/>
    <interval begin="0.00" end="300.00" id="TLS12_0_InductLoopOn_7_1" nVehContrib="9" flow="108.00" occupancy="0.59" speed="25.63" length="5.00" nVehEntered="9"/>
    <interval begin="0.00" end="300.00" id="TLS12_0_InductLoopOn_33_0" nVehContrib="1" flow="12.00" occupancy="0.07" speed="23.08" length="5.00" nVehEntered="1"/>
    <interval begin="0.00" end="300.00" id="TLS12_0_InductLoopOn_33_1" nVehContrib="1" flow="12.00" occupancy="0.07" speed="24.25" length="5.00" nVehEntered="1"/>
    <interval begin="0.00" end="300.00" id="TLS12_0_InductLoopOn_38_0" nVehContrib="5" flow="60.00" occupancy="0.31" speed="26.63" length="5.00" nVehEntered="5"/>
    <interval begin="0.00" end="300.00" id="TLS12_0_InductLoopOn_38_1" nVehContrib="19" flow="228.00" occupancy="17.54" speed="20.76" length="5.00" nVehEntered="20"/>
    <interval begin="0.00" end="300.00" id="TLS12_0_InductLoopOn_ef12_0" nVehContrib="55" flow="660.00" occupancy="8.63" speed="14.89" length="5.00" nVehEntered="55"/>
    <interval begin="0.00" end="300.00" id="TLS12_0_InductLoopOn_ef12_1" nVehContrib="57" flow="684.00" occupancy="7.55" speed="16.05" length="5.00" nVehEntered="58"/>
    <interval begin="0.00" end="300.00" id="TLS13_0_InductLoopOn_37_0" nVehContrib="9" flow="108.00" occupancy="0.67" speed="22.83" length="5.00" nVehEntered="9"/>
    <interval begin="0.00" end="300.00" id="TLS13_0_InductLoopOn_37_1" nVehContrib="17" flow="204.00" occupancy="1.22" speed="23.73" length="5.00" nVehEntered="17"/>
    <interval begin="0.00" end="300.00" id="TLS13_0_InductLoopOn_74_0" nVehContrib="10" flow="120.00" occupancy="0.60" speed="27.87" length="5.00" nVehEntered="10"/>
    <interval begin="0.00" end="300.00" id="TLS13_0_InductLoopOn_74_1" nVehContrib="7" flow="84.00" occupancy="0.46" speed="25.65" length="5.00" nVehEntered="7"/>
    <interval begin="0.00" end="300.00" id="TLS13_0_InductLoopOn_ef13_0" nVehContrib="41" flow="492.00" occupancy="3.92" speed="17.68" length="5.00" nVehEntered="41"/>
    <interval begin="0.00" end="300.00" id="TLS13_0_InductLoopOn_ef13_1" nVehContrib="74" flow="888.00" occupancy="18.68" speed="11.73" length="5.00" nVehEntered="74"/>
    <interval begin="0.00" end="300.00" id="TLS14_0_InductLoopOn_34_0" nVehContrib="5" flow="60.00" occupancy="0.39" speed="21.81" length="5.00" nVehEntered="5"/>
    <interval begin="0.00" end="300.00" id="TLS14_0_InductLoopOn_34_1" nVehContrib="5" flow="60.00" occupancy="0.36" speed="22.99" length="5.00" nVehEntered="5"/>
    <interval begin="0.00" end="300.00" id="TLS14_0_InductLoopOn_44_0" nVehContrib="5" flow="60.00" occupancy="0.35" speed="23.79" length="5.00" nVehEntered="5"/>
    <interval begin="0.00" end="300.00" id="TLS14_0_InductLoopOn_44_1" nVehContrib="0" flow="0.00" occupancy="0.00" speed="-1.00" length="-1.00" nVehEntered="0"/>
    <interval begin="0.00" end="300.00" id="TLS14_0_InductLoopOn_71_0" nVehContrib="2" flow="24.00" occupancy="0.14" speed="23.54" length="5.00" nVehEntered="2"/>
    <interval begin="0.00" end="300.00" id="TLS14_0_InductLoopOn_71_1" nVehContrib="7" flow="84.00" occupancy="0.59" speed="20.12" length="5.00" nVehEntered="7"/>
    <interval begin="0.00" end="300.00" id="TLS14_0_InductLoopOn_ef14_0" nVehContrib="50" flow="600.00" occupancy="6.26" speed="15.88" length="5.00" nVehEntered="50"/>
    <interval begin="0.00" end="300.00" id="TLS14_0_InductLoopOn_ef14_1" nVehContrib="56" flow="672.00" occupancy="7.71" speed="16.16" length="5.00" nVehEntered="56"/>
    <interval begin="0.00" end="300.00" id="TLS17_0_InductLoopOn_49_0" nVehContrib="4" flow="48.00" occupancy="0.28" speed="24.16" length="5.00" nVehEntered="4"/>
    <interval begin="0.00" end="300.00" id="TLS17_0_InductLoopOn_49_1" nVehContrib="8" flow="96.00" occupancy="0.58" speed="22.98" length="5.00" nVehEntered="8"/>
    <interval begin="0.00" end="300.00" id="TLS17_0_InductLoopOn_ef17_0" nVehContrib="54" flow="648.00" occupancy="6.37" speed="16.84" length="5.00" nVehEntered="55"/>
    <interval begin="0.00" end="300.00" id="TLS17_0_InductLoopOn_ef17_1" nVehContrib="45" flow="540.00" occupancy="4.42" speed="18.84" length="5.00" nVehEntered="45"/>
    <interval begin="0.00" end="300.00" id="TLS17_0_InductLoopOn_58_0" nVehContrib="13" flow="156.00" occupancy="1.06" speed="20.78" length="5.00" nVehEntered="13"/>
    <interval begin="0.00" end="300.00" id="TLS17_0_InductLoopOn_58_1" nVehContrib="9" flow="108.00" occupancy="0.70" speed="21.79" length="5.00" nVehEntered="9"/>
    <interval begin="0.00" end="300.00" id="TLS17_0_InductLoopOn_30_0" nVehContrib="0" flow="0.00" occupancy="0.00" speed="-1.00" length="-1.00" nVehEntered="0"/>
    <interval begin="0.00" end="300.00" id="TLS17_0_InductLoopOn_30_1" nVehContrib="0" flow="0.00" occupancy="0.00" speed="-1.00" length="-1.00" nVehEntered="0"/>
    <interval begin="0.00" end="300.00" id="TLS18_0_InductLoopOn_18_0" nVehContrib="18" flow="216.00" occupancy="1.52" speed="20.93" length="5.00" nVehEntered="18"/>
    <interval begin="0.00" end="300.00" id="TLS18_0_InductLoopOn_18_1" nVehContrib="23" flow="276.00" occupancy="14.01" speed="16.68" length="5.00" nVehEntered="24"/>
    <interval begin="0.00" end="300.00" id="TLS18_0_InductLoopOn_ef18_0" nVehContrib="49" flow="588.00" occupancy="5.68" speed="16.13" length="5.00" nVehEntered="49"/>
    <interval begin="0.00" end="300.00" id="TLS18_0_InductLoopOn_ef18_1" nVehContrib="49" flow="588.00" occupancy="5.19" speed="16.98" length="5.00" nVehEntered="50"/>
    <interval begin="0.00" end="300.00" id="TLS18_0_InductLoopOn_60_0" nVehContrib="12" flow="144.00" occupancy="0.88" speed="23.72" length="5.00" nVehEntered="12"/>
    <interval begin="0.00" end="300.00" id="TLS18_0_InductLoopOn_60_1" nVehContrib="10" flow="120.00" occupancy="0.67" speed="25.06" length="5.00" nVehEntered="10"/>
    <interval begin="0.00" end="300.00" id="TLS18_0_InductLoopOn_50_0" nVehContrib="8" flow="96.00" occupancy="0.88" speed="21.58" length="5.00" nVehEntered="8"/>
    <interval begin="0.00" end="300.00" id="TLS18_0_InductLoopOn_50_1" nVehContrib="3" flow="36.00" occupancy="0.21" speed="23.94" length="5.00" nVehEntered="4"/>
    <interval begin="0.00" end="300.00" id="TLS19_0_InductLoopOn_53_0" nVehContrib="9" flow="108.00" occupancy="0.71" speed="21.45" length="5.00" nVehEntered="9"/>
    <interval begin="0.00" end="300.00" id="TLS19_0_InductLoopOn_53_1" nVehContrib="12" flow="144.00" occupancy="1.00" speed="20.45" length="5.00" nVehEntered="12"/>
    <interval begin="0.00" end="300.00" id="TLS19_0_InductLoopOn_ef19_0" nVehContrib="47" flow="564.00" occupancy="6.93" speed="16.05" length="5.00" nVehEntered="48"/>
    <interval begin="0.00" end="300.00" id="TLS19_0_InductLoopOn_ef19_1" nVehContrib="49" flow="588.00" occupancy="6.18" speed="16.77" length="5.00" nVehEntered="49"/>
    <interval begin="0.00" end="300.00" id="TLS19_0_InductLoopOn_61_0" nVehContrib="6" flow="72.00" occupancy="0.45" speed="22.25" length="5.00" nVehEntered="6"/>
    <interval begin="0.00" end="300.00" id="TLS19_0_InductLoopOn_61_1" nVehContrib="0" flow="0.00" occupancy="0.00" speed="-1.00" length="-1.00" nVehEntered="0"/>
    <interval begin="0.00" end="300.00" id="TLS19_0_InductLoopOn_45_0" nVehContrib="4" flow="48.00" occupancy="0.29" speed="23.15" length="5.00" nVehEntered="4"/>
    <interval begin="0.00" end="300.00" id="TLS19_0_InductLoopOn_45_1" nVehContrib="10" flow="120.00" occupancy="0.73" speed="22.98" length="5.00" nVehEntered="10"/>
    <interval begin="0.00" end="300.00" id="TLS2_0_InductLoopOn_ef2_0" nVehContrib="21" flow="252.00" occupancy="2.02" speed="17.77" length="5.00" nVehEntered="21"/>
    <interval begin="0.00" end="300.00" id="TLS2_0_InductLoopOn_ef2_1" nVehContrib="57" flow="684.00" occupancy="10.64" speed="14.28" length="5.00" nVehEntered="57"/>
    <interval begin="0.00" end="300.00" id="TLS2_0_InductLoopOn_14_0" nVehContrib="3" flow="36.00" occupancy="0.18" speed="28.52" length="5.00" nVehEntered="3"/>
    <interval begin="0.00" end="300.00" id="TLS2_0_InductLoopOn_14_1" nVehContrib="3" flow="36.00" occupancy="0.18" speed="28.71" length="5.00" nVehEntered="3"/>
    <interval begin="0.00" end="300.00" id="TLS2_0_InductLoopOn_1_0" nVehContrib="4" flow="48.00" occupancy="0.24" speed="28.34" length="5.00" nVehEntered="4"/>
    <interval begin="0.00" end="300.00" id="TLS2_0_InductLoopOn_1_1" nVehContrib="1" flow="12.00" occupancy="0.06" speed="30.17" length="5.00" nVehEntered="1"/>
    <interval begin="0.00" end="300.00" id="TLS21_0_InductLoopOn_69_0" nVehContrib="14" flow="168.00" occupancy="1.03" speed="22.81" length="5.00" nVehEntered="14"/>
    <interval begin="0.00" end="300.00" id="TLS21_0_InductLoopOn_69_1" nVehContrib="1" flow="12.00" occupancy="0.07" speed="24.04" length="5.00" nVehEntered="1"/>
    <interval begin="0.00" end="300.00" id="TLS21_0_InductLoopOn_62_0" nVehContrib="2" flow="24.00" occupancy="0.12" speed="27.56" length="5.00" nVehEntered="2"/>
    <interval begin="0.00" end="300.00" id="TLS21_0_InductLoopOn_62_1" nVehContrib="2" flow="24.00" occupancy="0.12" speed="27.55" length="5.00" nVehEntered="2"/>
    <interval begin="0.00" end="300.00" id="TLS21_0_InductLoopOn_ef21_0" nVehContrib="43" flow="516.00" occupancy="6.79" speed="13.64" length="5.00" nVehEntered="43"/>
    <interval begin="0.00" end="300.00" id="TLS21_0_InductLoopOn_ef21_1" nVehContrib="46" flow="552.00" occupancy="7.92" speed="14.92" length="5.00" nVehEntered="46"/>
    <interval begin="0.00" end="300.00" id="TLS21_0_InductLoopOn_75_0" nVehContrib="12" flow="144.00" occupancy="0.77" speed="26.20" length="5.00" nVehEntered="12"/>
    <interval begin="0.00" end="300.00" id="TLS21_0_InductLoopOn_75_1" nVehContrib="11" flow="132.00" occupancy="0.69" speed="26.53" length="5.00" nVehEntered="11"/>
    <interval begin="0.00" end="300.00" id="TLS23_0_InductLoopOn_42_0" nVehContrib="7" flow="84.00" occupancy="0.59" speed="20.00" length="5.00" nVehEntered="7"/>
    <interval begin="0.00" end="300.00" id="TLS23_0_InductLoopOn_42_1" nVehContrib="3" flow="36.00" occupancy="0.21" speed="23.96" length="5.00" nVehEntered="3"/>
    <interval begin="0.00" end="300.00" id="TLS23_0_InductLoopOn_70_0" nVehContrib="4" flow="48.00" occupancy="0.28" speed="24.09" length="5.00" nVehEntered="4"/>
    <interval begin="0.00" end="300.00" id="TLS23_0_InductLoopOn_70_1" nVehContrib="0" flow="0.00" occupancy="0.00" speed="-1.00" length="-1.00" nVehEntered="0"/>
    <interval begin="0.00" end="300.00" id="TLS23_0_InductLoopOn_76_0" nVehContrib="1" flow="12.00" occupancy="0.07" speed="23.30" length="5.00" nVehEntered="1"/>
    <interval begin="0.00" end="300.00" id="TLS23_0_InductLoopOn_76_1" nVehContrib="20" flow="240.00" occupancy="1.59" speed="21.44" length="5.00" nVehEntered="20"/>
    <interval begin="0.00" end="300.00" id="TLS23_0_InductLoopOn_ef23_0" nVehContrib="48" flow="576.00" occupancy="6.40" speed="15.51" length="5.00" nVehEntered="48"/>
    <interval begin="0.00" end="300.00" id="TLS23_0_InductLoopOn_ef23_1" nVehContrib="57" flow="684.00" occupancy="9.26" speed="14.63" length="5.00" nVehEntered="57"/>
    <interval begin="0.00" end="300.00" id="TLS24_0_InductLoopOn_73_0" nVehContrib="10" flow="120.00" occupancy="0.75" speed="22.22" length="5.00" nVehEntered="10"/>
    <interval begin="0.00" end="300.00" id="TLS24_0_InductLoopOn_73_1" nVehContrib="8" flow="96.00" occupancy="0.64" speed="21.07" length="5.00" nVehEntered="8"/>
    <interval begin="0.00" end="300.00" id="TLS24_0_InductLoopOn_66_0" nVehContrib="6" flow="72.00" occupancy="0.37" speed="27.32" length="5.00" nVehEntered="7"/>
    <interval begin="0.00" end="300.00" id="TLS24_0_InductLoopOn_66_1" nVehContrib="9" flow="108.00" occupancy="0.86" speed="23.69" length="5.00" nVehEntered="9"/>
    <interval begin="0.00" end="300.00" id="TLS24_0_InductLoopOn_ef24_0" nVehContrib="44" flow="528.00" occupancy="6.78" speed="14.82" length="5.00" nVehEntered="44"/>
    <interval begin="0.00" end="300.00" id="TLS24_0_InductLoopOn_ef24_1" nVehContrib="51" flow="612.00" occupancy="7.15" speed="16.59" length="5.00" nVehEntered="51"/>
    <interval begin="0.00" end="300.00" id="TLS24_0_InductLoopOn_39_0" nVehContrib="14" flow="168.00" occupancy="1.03" speed="23.08" length="5.00" nVehEntered="14"/>
    <interval begin="0.00" end="300.00" id="TLS24_0_InductLoopOn_39_1" nVehContrib="10" flow="120.00" occupancy="0.67" speed="25.18" length="5.00" nVehEntered="10"/>
    <interval begin="0.00" end="300.00" id="TLS3_0_InductLoopOn_2_0" nVehContrib="19" flow="228.00" occupancy="1.62" speed="21.24" length="5.00" nVehEntered="19"/>
    <interval begin="0.00" end="300.00" id="TLS3_0_InductLoopOn_2_1" nVehContrib="9" flow="108.00" occupancy="0.62" speed="24.87" length="5.00" nVehEntered="9"/>
    <interval begin="0.00" end="300.00" id="TLS3_0_InductLoopOn_8_0" nVehContrib="3" flow="36.00" occupancy="0.22" speed="22.98" length="5.00" nVehEntered="3"/>
    <interval begin="0.00" end="300.00" id="TLS3_0_InductLoopOn_8_1" nVehContrib="7" flow="84.00" occupancy="0.53" speed="22.26" length="5.00" nVehEntered="7"/>
    <interval begin="0.00" end="300.00" id="TLS3_0_InductLoopOn_35_0" nVehContrib="4" flow="48.00" occupancy="0.29" speed="22.75" length="5.00" nVehEntered="4"/>
    <interval begin="0.00" end="300.00" id="TLS3_0_InductLoopOn_35_1" nVehContrib="7" flow="84.00" occupancy="0.55" speed="21.40" length="5.00" nVehEntered="7"/>
    <interval begin="0.00" end="300.00" id="TLS3_0_InductLoopOn_ef3_0" nVehContrib="54" flow="648.00" occupancy="7.93" speed="14.93" length="5.00" nVehEntered="56"/>
    <interval begin="0.00" end="300.00" id="TLS3_0_InductLoopOn_ef3_1" nVehContrib="50" flow="600.00" occupancy="9.72" speed="15.34" length="5.00" nVehEntered="50"/>
    <interval begin="0.00" end="300.00" id="TLS4_0_InductLoopOn_ef4_0" nVehContrib="53" flow="636.00" occupancy="7.11" speed="15.62" length="5.00" nVehEntered="53"/>
    <interval begin="0.00" end="300.00" id="TLS4_0_InductLoopOn_ef4_1" nVehContrib="57" flow="684.00" occupancy="11.17" speed="12.73" length="5.00" nVehEntered="57"/>
    <interval begin="0.00" end="300.00" id="TLS4_0_InductLoopOn_11_0" nVehContrib="19" flow="228.00" occupancy="2.86" speed="15.29" length="5.00" nVehEntered="19"/>
    <interval begin="0.00" end="300.00" id="TLS4_0_InductLoopOn_11_1" nVehContrib="5" flow="60.00" occupancy="0.38" speed="22.00" length="5.00" nVehEntered="5"/>
    <interval begin="0.00" end="300.00" id="TLS4_0_InductLoopOn_31_0" nVehContrib="0" flow="0.00" occupancy="0.00" speed="-1.00" length="-1.00" nVehEntered="0"/>
    <interval begin="0.00" end="300.00" id="TLS4_0_InductLoopOn_31_1" nVehContrib="1" flow="12.00" occupancy="0.07" speed="23.29" length="5.00" nVehEntered="1"/>
    <interval begin="0.00" end="300.00" id="TLS4_0_InductLoopOn_6_0" nVehContrib="2" flow="24.00" occupancy="0.14" speed="24.11" length="5.00" nVehEntered="2"/>
    <interval begin="0.00" end="300.00" id="TLS4_0_InductLoopOn_6_1" nVehContrib="10" flow="120.00" occupancy="0.78" speed="21.66" length="5.00" nVehEntered="10"/>
    <interval begin="0.00" end="300.00" id="TLS5_0_InductLoopOn_ef5_0" nVehContrib="53" flow="636.00" occupancy="7.59" speed="15.12" length="5.00" nVehEntered="54"/>
    <interval begin="0.00" end="300.00" id="TLS5_0_InductLoopOn_ef5_1" nVehContrib="43" flow="516.00" occupancy="7.94" speed="14.05" length="5.00" nVehEntered="43"/>
    <interval begin="0.00" end="300.00" id="TLS5_0_InductLoopOn_15_0" nVehContrib="4" flow="48.00" occupancy="0.32" speed="20.77" length="5.00" nVehEntered="4"/>
    <interval begin="0.00" end="300.00" id="TLS5_0_InductLoopOn_15_1" nVehContrib="7" flow="84.00" occupancy="0.53" speed="21.94" length="5.00" nVehEntered="7"/>
    <interval begin="0.00" end="300.00" id="TLS5_0_InductLoopOn_23_0" nVehContrib="1" flow="12.00" occupancy="0.07" speed="23.45" length="5.00" nVehEntered="1"/>
    <interval begin="0.00" end="300.00" id="TLS5_0_InductLoopOn_23_1" nVehContrib="3" flow="36.00" occupancy="0.21" speed="23.44" length="5.00" nVehEntered="3"/>
    <interval begin="0.00" end="300.00" id="TLS5_0_InductLoopOn_9_0" nVehContrib="9" flow="108.00" occupancy="0.73" speed="21.38" length="5.00" nVehEntered="9"/>
    <interval begin="0.00" end="300.00" id="TLS5_0_InductLoopOn_9_1" nVehContrib="20" flow="240.00" occupancy="5.40" speed="12.67" length="5.00" nVehEntered="20"/>
    <interval begin="0.00" end="300.00" id="TLS6_0_InductLoopOn_4_0" nVehContrib="9" flow="108.00" occupancy="0.65" speed="24.00" length="5.00" nVehEntered="9"/>
    <interval begin="0.00" end="300.00" id="TLS6_0_InductLoopOn_4_1" nVehContrib="11" flow="132.00" occupancy="0.90" speed="21.07" length="5.00" nVehEntered="11"/>
    <interval begin="0.00" end="300.00" id="TLS6_0_InductLoopOn_ef6_0" nVehContrib="28" flow="336.00" occupancy="2.70" speed="17.74" length="5.00" nVehEntered="28"/>
    <interval begin="0.00" end="300.00" id="TLS6_0_InductLoopOn_ef6_1" nVehContrib="59" flow="708.00" occupancy="11.39" speed="14.05" length="5.00" nVehEntered="59"/>
    <interval begin="0.00" end="300.00" id="TLS6_0_InductLoopOn_19_0" nVehContrib="8" flow="96.00" occupancy="0.53" speed="25.26" length="5.00" nVehEntered="8"/>
    <interval begin="0.00" end="300.00" id="TLS6_0_InductLoopOn_19_1" nVehContrib="14" flow="168.00" occupancy="0.91" speed="25.81" length="5.00" nVehEntered="14"/>
    <interval begin="0.00" end="300.00" id="TLS6_0_InductLoopOn_12_0" nVehContrib="6" flow="72.00" occupancy="0.43" speed="23.51" length="5.00" nVehEntered="6"/>
    <interval begin="0.00" end="300.00" id="TLS6_0_InductLoopOn_12_1" nVehContrib="1" flow="12.00" occupancy="0.07" speed="24.58" length="5.00" nVehEntered="1"/>
    <interval begin="0.00" end="300.00" id="TLS7_0_InductLoopOn_ef7_0" nVehContrib="44" flow="528.00" occupancy="4.91" speed="16.19" length="5.00" nVehEntered="45"/>
    <interval begin="0.00" end="300.00" id="TLS7_0_InductLoopOn_ef7_1" nVehContrib="68" flow="816.00" occupancy="16.52" speed="14.36" length="5.00" nVehEntered="69"/>
    <interval begin="0.00" end="300.00" id="TLS7_0_InductLoopOn_54_0" nVehContrib="8" flow="96.00" occupancy="0.52" speed="25.81" length="5.00" nVehEntered="9"/>
    <interval begin="0.00" end="300.00" id="TLS7_0_InductLoopOn_54_1" nVehContrib="12" flow="144.00" occupancy="1.12" speed="23.82" length="5.00" nVehEntered="12"/>
    <interval begin="0.00" end="300.00" id="TLS7_0_InductLoopOn_20_0" nVehContrib="17" flow="204.00" occupancy="1.00" speed="28.35" length="5.00" nVehEntered="17"/>
    <interval begin="0.00" end="300.00" id="TLS7_0_InductLoopOn_20_1" nVehContrib="4" flow="48.00" occupancy="0.24" speed="28.42" length="5.00" nVehEntered="4"/>
    <interval begin="0.00" end="300.00" id="TLS9_0_InductLoopOn_13_0" nVehContrib="2" flow="24.00" occupancy="0.14" speed="23.53" length="5.00" nVehEntered="2"/>
    <interval begin="0.00" end="300.00" id="TLS9_0_InductLoopOn_13_1" nVehContrib="0" flow="0.00" occupancy="0.00" speed="-1.00" length="-1.00" nVehEntered="0"/>
    <interval begin="0.00" end="300.00" id="TLS9_0_InductLoopOn_21_0" nVehContrib="0" flow="0.00" occupancy="0.00" speed="-1.00" length="-1.00" nVehEntered="0"/>
    <interval begin="0.00" end="300.00" id="TLS9_0_InductLoopOn_21_1" nVehContrib="0" flow="0.00" occupancy="0.00" speed="-1.00" length="-1.00" nVehEntered="0"/>
    <interval begin="0.00" end="300.00" id="TLS9_0_InductLoopOn_26_0" nVehContrib="0" flow="0.00" occupancy="0.00" speed="-1.00" length="-1.00" nVehEntered="0"/>
    <interval begin="0.00" end="300.00" id="TLS9_0_InductLoopOn_26_1" nVehContrib="8" flow="96.00" occupancy="0.58" speed="22.90" length="5.00" nVehEntered="8"/>
    <interval begin="0.00" end="300.00" id="TLS9_0_InductLoopOn_ef9_0" nVehContrib="47" flow="564.00" occupancy="4.58" speed="17.87" length="5.00" nVehEntered="47"/>
    <interval begin="0.00" end="300.00" id="TLS9_0_InductLoopOn_ef9_1" nVehContrib="51" flow="612.00" occupancy="6.18" speed="17.29" length="5.00" nVehEntered="52"/>
    <interval begin="300.00" end="600.00" id="TLS1_0_InductLoopOn_3_0" nVehContrib="22" flow="264.00" occupancy="1.30" speed="28.50" length="5.00" nVehEntered="22"/>
    <interval begin="300.00" end="600.00" id="TLS1_0_InductLoopOn_3_1" nVehContrib="19" flow="228.00" occupancy="1.14" speed="27.85" length="5.00" nVehEntered="19"/>
    <interval begin="300.00" end="600.00" id="TLS1_0_InductLoopOn_5_0" nVehContrib="2" flow="24.00" occupancy="0.18" speed="18.27" length="5.00" nVehEntered="2"/>
    <interval begin="300.00" end="600.00" id="TLS1_0_InductLoopOn_5_1" nVehContrib="37" flow="444.00" occupancy="8.42" speed="20.04" length="5.00" nVehEntered="37"/>
    <interval begin="300.00" end="600.00" id="TLS1_0_InductLoopOn_ef1_0" nVehContrib="78" flow="936.00" occupancy="8.99" speed="18.02" length="5.00" nVehEntered="78"/>
    <interval begin="300.00" end="600.00" id="TLS1_0_InductLoopOn_ef1_1" nVehContrib="22" flow="264.00" occupancy="1.76" speed="20.94" length="5.00" nVehEntered="23"/>
    <interval begin="300.00" end="600.00" id="TLS12_0_InductLoopOn_7_0" nVehContrib="40" flow="480.00" occupancy="11.70" speed="17.29" length="5.00" nVehEntered="40"/>
    <interval begin="300.00" end="600.00" id="TLS12_0_InductLoopOn_7_1" nVehContrib="24" flow="288.00" occupancy="1.79" speed="23.77" length="5.00" nVehEntered="24"/>
    <interval begin="300.00" end="600.00" id="TLS12_0_InductLoopOn_33_0" nVehContrib="12" flow="144.00" occupancy="0.85" speed="23.47" length="5.00" nVehEntered="12"/>
    <interval begin="300.00" end="600.00" id="TLS12_0_InductLoopOn_33_1" nVehContrib="6" flow="72.00" occupancy="0.44" speed="22.74" length="5.00" nVehEntered="6"/>
    <interval begin="300.00" end="600.00" id="TLS12_0_InductLoopOn_38_0" nVehContrib="10" flow="120.00" occupancy="1.10" speed="15.52" length="5.00" nVehEntered="10"/>
    <interval begin="300.00" end="600.00" id="TLS12_0_InductLoopOn_38_1" nVehContrib="23" flow="276.00" occupancy="82.18" speed="2.79" length="5.00" nVehEntered="23"/>
    <interval begin="300.00" end="600.00" id="TLS12_0_InductLoopOn_ef12_0" nVehContrib="61" flow="732.00" occupancy="11.77" speed="12.28" length="5.00" nVehEntered="62"/>
    <interval begin="300.00" end="600.00" id="TLS12_0_InductLoopOn_ef12_1" nVehContrib="47" flow="564.00" occupancy="14.72" speed="10.32" length="5.00" nVehEntered="47"/>
    <interval begin="300.00" end="600.00" id="TLS13_0_InductLoopOn_37_0" nVehContrib="27" flow="324.00" occupancy="2.34" speed="19.92" length="5.00" nVehEntered="27"/>
    <interval begin="300.00" end="600.00" id="TLS13_0_InductLoopOn_37_1" nVehContrib="46" flow="552.00" occupancy="4.69" speed="18.71" length="5.00" nVehEntered="46"/>
    <interval begin="300.00" end="600.00" id="TLS13_0_InductLoopOn_74_0" nVehContrib="43" flow="516.00" occupancy="2.67" speed="27.55" length="5.00" nVehEntered="43"/>
    <interval begin="300.00" end="600.00" id="TLS13_0_InductLoopOn_74_1" nVehContrib="13" flow="156.00" occupancy="0.89" speed="25.00" length="5.00" nVehEntered="13"/>
    <interval begin="300.00" end="600.00" id="TLS13_0_InductLoopOn_ef13_0" nVehContrib="35" flow="420.00" occupancy="15.39" speed="12.91" length="5.00" nVehEntered="36"/>
    <interval begin="300.00" end="600.00" id="TLS13_0_InductLoopOn_ef13_1" nVehContrib="29" flow="348.00" occupancy="44.81" speed="2.94" length="5.00" nVehEntered="30"/>
    <interval begin="300.00" end="600.00" id="TLS14_0_InductLoopOn_34_0" nVehContrib="16" flow="192.00" occupancy="1.17" speed="22.93" length="5.00" nVehEntered="16"/>
    <interval begin="300.00" end="600.00" id="TLS14_0_InductLoopOn_34_1" nVehContrib="2" flow="24.00" occupancy="0.14" speed="23.34" length="5.00" nVehEntered="2"/>
    <interval begin="300.00" end="600.00" id="TLS14_0_InductLoopOn_44_0" nVehContrib="14" flow="168.00" occupancy="0.99" speed="23.54" length="5.00" nVehEntered="14"/>
    <interval begin="300.00" end="600.00" id="TLS14_0_InductLoopOn_44_1" nVehContrib="4" flow="48.00" occupancy="0.29" speed="22.78" length="5.00" nVehEntered="4"/>
    <interval begin="300.00" end="600.00" id="TLS14_0_InductLoopOn_71_0" nVehContrib="6" flow="72.00" occupancy="0.52" speed="19.75" length="5.00" nVehEntered="6"/>
    <interval begin="300.00" end="600.00" id="TLS14_0_InductLoopOn_71_1" nVehContrib="31" flow="372.00" occupancy="5.79" speed="15.69" length="5.00" nVehEntered="31"/>
    <interval begin="300.00" end="600.00" id="TLS14_0_InductLoopOn_ef14_0" nVehContrib="66" flow="792.00" occupancy="12.06" speed="11.84" length="5.00" nVehEntered="66"/>
    <interval begin="300.00" end="600.00" id="TLS14_0_InductLoopOn_ef14_1" nVehContrib="52" flow="624.00" occupancy="18.67" speed="7.64" length="5.00" nVehEntered="52"/>
    <interval begin="300.00" end="600.00" id="TLS17_0_InductLoopOn_49_0" nVehContrib="9" flow="108.00" occupancy="1.06" speed="18.04" length="5.00" nVehEntered="9"/>
    <interval begin="300.00" end="600.00" id="TLS17_0_InductLoopOn_49_1" nVehContrib="23" flow="276.00" occupancy="1.95" speed="19.99" length="5.00" nVehEntered="24"/>
    <interval begin="300.00" end="600.00" id="TLS17_0_InductLoopOn_ef17_0" nVehContrib="63" flow="756.00" occupancy="12.43" speed="11.56" length="5.00" nVehEntered="63"/>
    <interval begin="300.00" end="600.00" id="TLS17_0_InductLoopOn_ef17_1" nVehContrib="48" flow="576.00" occupancy="14.14" speed="9.89" length="5.00" nVehEntered="48"/>
    <interval begin="300.00" end="600.00" id="TLS17_0_InductLoopOn_58_0" nVehContrib="21" flow="252.00" occupancy="1.95" speed="18.84" length="5.00" nVehEntered="21"/>
    <interval begin="300.00" end="600.00" id="TLS17_0_InductLoopOn_58_1" nVehContrib="13" flow="156.00" occupancy="1.26" speed="18.44" length="5.00" nVehEntered="13"/>
    <interval begin="300.00" end="600.00" id="TLS17_0_InductLoopOn_30_0" nVehContrib="14" flow="168.00" occupancy="1.00" speed="23.44" length="5.00" nVehEntered="14"/>
    <interval begin="300.00" end="600.00" id="TLS17_0_InductLoopOn_30_1" nVehContrib="7" flow="84.00" occupancy="0.52" speed="22.68" length="5.00" nVehEntered="7"/>
    <interval begin="300.00" end="600.00" id="TLS18_0_InductLoopOn_18_0" nVehContrib="32" flow="384.00" occupancy="9.94" speed="13.76" length="5.00" nVehEntered="32"/>
    <interval begin="300.00" end="600.00" id="TLS18_0_InductLoopOn_18_1" nVehContrib="14" flow="168.00" occupancy="87.63" speed="2.18" length="5.00" nVehEntered="14"/>
    <interval begin="300.00" end="600.00" id="TLS18_0_InductLoopOn_ef18_0" nVehContrib="58" flow="696.00" occupancy="12.29" speed="11.91" length="5.00" nVehEntered="58"/>
    <interval begin="300.00" end="600.00" id="TLS18_0_InductLoopOn_ef18_1" nVehContrib="46" flow="552.00" occupancy="21.86" speed="7.15" length="5.00" nVehEntered="46"/>
    <interval begin="300.00" end="600.00" id="TLS18_0_InductLoopOn_60_0" nVehContrib="28" flow="336.00" occupancy="2.72" speed="19.86" length="5.00" nVehEntered="28"/>
    <interval begin="300.00" end="600.00" id="TLS18_0_InductLoopOn_60_1" nVehContrib="23" flow="276.00" occupancy="1.73" speed="23.28" length="5.00" nVehEntered="23"/>
    <interval begin="300.00" end="600.00" id="TLS18_0_InductLoopOn_50_0" nVehContrib="14" flow="168.00" occupancy="1.00" speed="23.43" length="5.00" nVehEntered="14"/>
    <interval begin="300.00" end="600.00" id="TLS18_0_InductLoopOn_50_1" nVehContrib="11" flow="132.00" occupancy="0.83" speed="22.21" length="5.00" nVehEntered="11"/>
    <interval begin="300.00" end="600.00" id="TLS19_0_InductLoopOn_53_0" nVehContrib="18" flow="216.00" occupancy="1.81" speed="16.80" length="5.00" nVehEntered="18"/>
    <interval begin="300.00" end="600.00" id="TLS19_0_InductLoopOn_53_1" nVehContrib="21" flow="252.00" occupancy="1.79" speed="19.93" length="5.00" nVehEntered="21"/>
    <interval begin="300.00" end="600.00" id="TLS19_0_InductLoopOn_ef19_0" nVehContrib="68" flow="816.00" occupancy="13.73" speed="11.14" length="5.00" nVehEntered="68"/>