<?xml version="1.0" encoding="UTF-8"?>

<!-- generated on 3/27/2019 9:59:43 PM by SUMO gui Version 0.28.0
<?xml version="1.0" encoding="UTF-8"?>

<configuration xmlns:xsi="http://www.w3.org/2001/XMLSchema-instance" xsi:noNamespaceSchemaLocation="http://sumo.dlr.de/xsd/sumo-gui.exeConfiguration.xsd">

    <input>
        <net-file value="C:\Users\mdzadik\Dropbox\My_Research\Smart_Cities\My_Work\Work01\Simulation\siouxfalls\sioux.net.xml"/>
        <route-files value="C:\Users\mdzadik\Dropbox\My_Research\Smart_Cities\My_Work\Work01\Simulation\siouxfalls\sioux.rou.xml"/>
        <additional-files value="C:\Users\mdzadik\Dropbox\My_Research\Smart_Cities\My_Work\Work01\Simulation\siouxfalls\additionalFile.xml"/>
    </input>

    <output>
        <summary-output value="C:\Users\mdzadik\Dropbox\My_Research\Smart_Cities\My_Work\Work01\Simulation\siouxfalls\summary.xml"/>
        <tripinfo-output value="C:\Users\mdzadik\Dropbox\My_Research\Smart_Cities\My_Work\Work01\Simulation\siouxfalls\tripinfo.xml"/>
    </output>

    <processing>
        <time-to-teleport value="-1"/>
    </processing>

    <report>
        <verbose value="true"/>
        <xml-validation value="never"/>
        <duration-log.statistics value="true"/>
    </report>

</configuration>
-->

<tripinfos xmlns:xsi="http://www.w3.org/2001/XMLSchema-instance" xsi:noNamespaceSchemaLocation="http://sumo.dlr.de/xsd/tripinfo_file.xsd">
</tripinfos>
